# ODT 1.0
# Table Start
# Title: mmArchive Data Table, Fri Aug 24 20:55:08 BST 2007
# Columns: {Oxs_EulerEvolve::Max dm/dt} Oxs_EulerEvolve::dE/dt {Oxs_EulerEvolve::Delta E} {Oxs_EulerEvolve::Total energy} {Oxs_EulerEvolve::Energy calc count} Oxs_UniformExchange::Energy Oxs_Demag::Energy    Oxs_CubicAnisotropy::Energy Oxs_UZeeman::B       Oxs_UZeeman::Bx      Oxs_UZeeman::By      Oxs_UZeeman::Bz      Oxs_UZeeman::Energy  {Oxs_TimeDriver::Last time step} {Oxs_TimeDriver::Simulation time} Oxs_TimeDriver::Iteration {Oxs_TimeDriver::Stage iteration} Oxs_TimeDriver::Stage Oxs_TimeDriver::Mx   Oxs_TimeDriver::My   Oxs_TimeDriver::Mz   {Oxs_TimeDriver::Max Spin Ang} {Oxs_TimeDriver::Stage Max Spin Ang} {Oxs_TimeDriver::Run Max Spin Ang}
# Units:              deg/ns                     J/s                       J                             J                                 {}                               J                      J                         J                    mT                   mT                   mT                   mT                      J                          s                                 s                            {}                            {}                          {}                  A/m                  A/m                  A/m                        deg                               deg                                 deg                
                0.009312709938462489      -1.27628285412267e-19     -5.98374754190445e-32          5.984436345810027e-19                209                             6.258873622786399e-21      5.920954733933851e-19     8.928756483117329e-23      0                    0                    0                    0                    0                          5.862486282771295e-13              5.827265424666721e-11           200                           200                         0                     0                   -4.440892098500626e-16  1698415.915958279         4.947274454180103                 6.280457524845908                   6.280457524845908         
                0.009541173327252545      -1.322561548512775e-19     -1.534062903380455e-31          5.984317182137245e-19                1466                            6.256486909849217e-21      5.921005465976739e-19     9.835351741444137e-23      1.000000005          1                    0                    0.0001              -2.366881121303468e-23        1.501633053221657e-12              1.445602839356862e-09           1253                          1052                        1                     23498.98581818331   -21.47163120341314    1698253.948513633         4.946109548489356                 4.947332590641334                   6.280457524845908         
                0.00975711743610411      -1.373853484406221e-19     -1.591979525993913e-31          5.983962823268568e-19                2719                            6.249465099433285e-21      5.921156426978005e-19     1.256114268318167e-22      2.00000001           2                    0                    0.0002              -9.443689720880795e-23        1.498927347711977e-12              2.832228536572444e-09           2304                          1050                        2                     47048.67195294636   -21.9552607157553     1697766.514576129         4.942662601045385                 4.946225102426028                   6.280457524845908         
                0.009532119915815028      -1.316255717673742e-19     -1.539592631169355e-31          5.983372469051399e-19                3981                            6.237705501173497e-21      5.92140921257249e-19     1.712514273207006e-22      3.000000015          3                    0                    0.0003              -2.126312806031521e-22        1.504464248151424e-12              4.228166519029288e-09           3362                          1057                        3                     70707.3986524931    -21.52750337664124    1696948.818909211         4.936881558293169                 4.942912238887272                   6.280457524845908         
                0.009516007784510448      -1.294059434953398e-19     -1.522712409488777e-31          5.982544764450334e-19                5259                            6.221122382970246e-21      5.921765612341561e-19     2.355905017812066e-22      4.00000002           4                    0                    0.0004              -3.787976738741866e-22        1.50803029010982e-12              5.633441408733722e-09           4427                          1064                        4                     94529.83918905807   -21.39443723642434    1695792.794885627         4.928713697383771                 4.937230031120595                   6.280457524845908         
                0.009701065038509994      -1.306443727569338e-19     -1.543085090817743e-31          5.98147776715718e-19                6550                            6.199590192398468e-21      5.922228248081521e-19     3.190931784048675e-22      5.000000025          5                    0                    0.0005              -5.937314632373919e-22        1.509732559543965e-12              7.048172956237963e-09           5499                          1071                        5                     118576.8639857576   -21.58139139473237    1694286.617207854         4.918081615844232                 4.929182703562285                   6.280457524845908         
                0.009487862797799963      -1.232061389640627e-19     -1.470034476360074e-31          5.980168899073696e-19                7860                            6.172936541256219e-21      5.922800722579213e-19     4.223982154205902e-22      6.00000003           6                    0                    0.0006000000000000001 -8.585171072284767e-22        1.517404792502068e-12              8.481624722734866e-09           6585                          1085                        6                     142916.943133966    -20.95617751329496    1692414.041133907         4.904878471429154                 4.918669872687897                   6.280457524845908         
                0.009483371185234672      -1.198734533867841e-19     -1.44063960760782e-31          5.978614878170707e-19                9187                            6.140940179370019e-21      5.923487655326763e-19     5.463239918749378e-22      7.000000035          7.000000000000001    0                    0.0007000000000000001 -1.174541886850568e-21        1.522883959786106e-12              9.933886659478185e-09           7685                          1099                        7                     167622.682716999    -20.71498902536124    1690154.045106859         4.888967459878073                 4.905589639552813                   6.280457524845908         
                0.009641167339395459      -1.20823848741994e-19     -1.45926605910549e-31          5.97681162517599e-19                10521                           6.103314758819291e-21      5.924295028051211e-19     6.919306418906512e-22      8.00000004           8                    0                    0.0008              -1.543585688232027e-21        1.526070208944228e-12              1.1405043469821e-08           8799                          1113                        8                     192779.4630956562   -20.93922799650833    1687479.333471206         4.870170766708417                 4.889852376465774                   6.280457524845908         
                0.009984588201046781      -1.267676839292831e-19     -1.535809133212282e-31          5.974754136895728e-19                11870                           6.059694689108406e-21      5.925230479771233e-19     8.605723090368313e-22      9.000000045          9                    0                    0.0009000000000000001 -1.967901285695795e-21        1.529733607383024e-12              1.289514319228085e-08           9927                          1127                        9                     218487.2629257648   -21.68008597037488    1684354.848790576         4.848260533173108                 4.871189319659679                   6.280457524845908         
                8.105367531216944        -5.764278600887297e-14     -6.019465823192177e-26          5.972487701526354e-19                11948                           6.025040556206888e-21      5.925945403019663e-19     9.848648248930542e-22      10.00000005          10                   0                    0.001               -2.355675530430826e-21        1.261366582308598e-12              1.299852305929996e-08           10000                         72                          10                    235399.3496090709   -12859.73286114615    1682034.340115949         4.841438609508582                 4.84941925780157                    6.280457524845908         
                0.00966305844913295      -1.117921026050468e-19     -1.278822310260918e-31          5.972436313403387e-19                13241                           6.009606426869629e-21      5.926303907451353e-19     1.05400357576898e-21      10.00000005          10                   0                    0.001               -2.450369407435281e-21        1.411309676266974e-12              1.44172340455689e-08           11079                         1151                        10                    244868.8672399517   -21.36621585618467    1680735.035763717         4.822938670186231                 4.84941925780157                    6.280457524845908         
                0.009956281225092145      -1.230402525188388e-19     -1.449079718454929e-31          5.969850719205246e-19                14621                           5.952449020229419e-21      5.927527866085086e-19     1.274449664823409e-21      11.000000055         11                   0                    0.0011              -2.994613373036879e-21        1.46311704723212e-12              1.597185898432217e-08           12254                         1174                        11                    272069.9232265818   -21.69874382992052    1676561.404071549         4.793831888281439                 4.824147936180848                   6.280457524845908         
                0.009903750468968443      -1.271840367601243e-19     -1.504668034628025e-31          5.96698824578827e-19                16046                           5.887429803188655e-21      5.928918960491479e-19     1.524860742397086e-21      12.00000006          12                   0                    0.0012              -3.605362015906645e-21        1.470607922894524e-12              1.756383932788137e-08           13456                         1201                        12                    300279.659055543    -22.28526184538593    1671756.033440768         4.760434576505904                 4.795184369815137                   6.280457524845908         
                0.009998251773243703      -1.307632489939981e-19     -1.546868588782288e-31          5.963837620472771e-19                17488                           5.813479076232241e-21      5.93049954932736e-19     1.809200800595238e-21      13.000000065         13                   0                    0.0013              -4.288872762286192e-21        1.468352334996797e-12              1.920208654690188e-08           14691                         1234                        13                    329746.6680739537   -22.81572775709451    1666213.326764363         4.72206938867496                  4.761935382428847                   6.280457524845908         
                0.00993206122838528      -1.353476677249903e-19     -1.609441824256006e-31          5.960384662096695e-19                18988                           5.72911702457758e-21      5.93230060389513e-19     2.132967359980783e-21      14.00000007          14                   0                    0.0014              -5.053678564401903e-21        1.476499000332267e-12              2.089696499108269e-08           15968                         1276                        14                    360811.0617719989   -23.38374561956366    1659785.424227266         4.677791213244186                 4.723724124971266                   6.280457524845908         
                0.009707735595272198      -1.193911144918936e-19     -1.495645847168863e-31          5.956611091007734e-19                20618                           5.632189213789172e-21      5.934367257218858e-19     2.50417825766413e-21      15.000000075         15                   0                    0.0015              -5.911984092565792e-21        1.50078646325282e-12              2.267143875707515e-08           17304                         1335                        15                    393967.0473671699   -23.18006672834185    1652254.705494557         4.626212326663752                 4.679760331053907                   6.280457524845908         
                0.009834584428336119      -1.160227290388858e-19     -1.435691956423797e-31          5.952492482812704e-19                22264                           5.519353956534375e-21      5.936769376646079e-19     2.935221956860548e-21      16.00000008          16                   0                    0.0016              -6.882265296732413e-21        1.524480121432086e-12              2.454888790882863e-08           18715                         1410                        16                    429977.2529514048   -22.80843546420517    1643280.943708522         4.565180988841119                 4.62835666339138                    6.280457524845908         
                0.0272300803540158       -6.993409427735929e-19     -7.527996785946077e-31          5.947994365594211e-19                23769                           5.38508234497363e-21      5.939623046629084e-19     3.446764326178468e-21      17.000000085         17                   0                    0.0017              -7.994714774639489e-21        1.346219080972255e-12              2.62614778068591e-08           20000                         1284                        17                    470114.1109828927    46.69047087486888    1632287.017830153         4.491107252378324                 4.567568514714658                   6.280457524845908         
                0.009966977909515137      -1.274949445999859e-19     -1.681328285480212e-31          5.947994364979291e-19                24007                           5.384947541483877e-21      5.939625752574551e-19     3.447223410471917e-21      17.000000085         17                   0                    0.0017              -7.995309711481771e-21        1.542114804114445e-12              2.653817858429087e-08           20208                         1492                        17                    470149.1082721257   -22.5657440192077     1632276.973902056         4.491001012605667                 4.567568514714658                   6.280457524845908         
                0.009857705913539204      -1.300825270368659e-19     -1.559965312476224e-31          5.943063474233814e-19                25790                           5.217547105618732e-21      5.943175616773082e-19     4.082664368743719e-21      18.00000009          18                   0                    0.0018              -9.311425728289224e-21        1.452331333500765e-12              2.86025377447087e-08           21754                         1545                        18                    517139.6245627891   -0.3921369512224251   1618047.866121244         4.396153023861164                 4.493686720937197                   6.280457524845908         
                0.009725782703897531      -1.211492296477676e-19     -1.450971467434205e-31          5.937601481759851e-19                27945                           4.984805671609686e-21      5.948096942330838e-19     4.962011166268114e-21      19.000000095         19                   0                    0.0019              -1.099636289497639e-20        1.438400697300273e-12              3.10385708383886e-08           23573                         1818                        19                    578596.2252518293    24.09916227807127    1597165.890330974         4.444007360050979                 4.45931470459746                    6.280457524845908         
                0.009942561336872545      -1.216792396178129e-19     -1.276494003836418e-31          5.644751699615625e-19                31238                           6.20129145200205e-21      5.921540212233569e-19     8.846727214838888e-23      20.0000001           20                   0                    0.002               -3.396860998594486e-20        1.374414495395967e-12              3.466758718866293e-08           26302                         2728                        20                    1698430.496009755    15.6715221123007     32.87487556095518         4.924450112265301                 4.924450113320002                   6.280457524845908         
                0.00998781950065547      -8.153327594762531e-20     -8.763163350498368e-32          5.627767390977989e-19                31288                           6.198434053879192e-21      5.921569341630373e-19     8.842657276534952e-23      21.000000105         21                   0                    0.0021              -3.566705569188297e-20        1.459408663996816e-12              3.470440915398703e-08           26350                         47                          21                    1698431.219395379    12.87645669685103    40.27619216450369         4.923314751426234                 4.924450112265301                   6.280457524845908         
                0.00919675690296002      -7.098394618386041e-20     -4.991306923357007e-32          5.610783075120632e-19                31331                           6.195594827528246e-21      5.92159829294069e-19     8.838612865039384e-23      22.00000011          22                   0                    0.0022              -3.736550273818454e-20        9.970240315400916e-13              3.473220478886963e-08           26392                         41                          22                    1698431.938242988    9.804450150639568    44.01762927354847         4.922186352216007                 4.923314751426234                   6.280457524845908         
                0.009949465265360497      -7.562081803011762e-20     -4.767207428816199e-32          5.593798752042732e-19                31372                           6.192688796768809e-21      5.921627932853375e-19     8.834473110693745e-23      23.000000115         23                   0                    0.0023              -3.906395160894006e-20        8.918562674576454e-13              3.47569334979399e-08           26432                         39                          23                    1698432.674035582    7.026948297192675    46.13984867792706         4.921031135495816                 4.922186352216007                   6.280457524845908         
                0.009848305929931115      -7.628337997147421e-20     -3.635068424041161e-32          5.576814421748411e-19                31411                           6.189877527812234e-21      5.921656613385112e-19     8.830468243873504e-23      24.00000012          24                   0                    0.0024              -4.076240137392115e-20        7.072483044560726e-13              3.477943443450992e-08           26470                         37                          24                    1698433.385852377    4.779384460725215    47.27669987533668         4.91991333140873                  4.921031135495816                   6.280457524845908         
                0.009746217629401789      -9.202369166260491e-20     -4.906905815012418e-32          5.559830084241747e-19                31449                           6.187071642910364e-21      5.921685245990268e-19     8.826470978717028e-23      25.000000125         25                   0                    0.0025              -4.24608525275496e-20        7.43424203842803e-13              3.48007258095685e-08           26507                         36                          25                    1698434.096316932    3.059954048876059    47.8505206745662          4.918797415511786                 4.91991333140873                    6.280457524845908         
                0.009869183843079065      -9.944636141056973e-20     -5.244510248299756e-32          5.542845739527239e-19                31487                           6.184239399948317e-21      5.921714154666564e-19     8.822436122561085e-23      26.00000013          26                   0                    0.0026              -4.415930527510659e-20        7.017985314638398e-13              3.482156401470546e-08           26544                         36                          26                    1698434.813461647    1.827022117079688    48.11682805895617         4.917670760778488                 4.918797415511786                   6.280457524845908         
                0.009644006354885694      -1.072472680977695e-19     -5.439505912364357e-32          5.525861387609761e-19                31525                           6.181403596425119e-21      5.921743106838608e-19     8.818396173606377e-23      27.000000135         27                   0                    0.0027              -4.585775948104582e-20        6.625345127531575e-13              3.484201593745725e-08           26581                         36                          27                    1698435.531510342    1.055239316934651    48.24688343424673         4.91654243171315                  4.917670760778488                   6.280457524845908         
                0.009331765049147699      -1.127948928826147e-19     -5.506444722412579e-32          5.508877028493965e-19                31562                           6.178564900867373e-21      5.921772095710974e-19     8.814352101493846e-23      28.00000014          28                   0                    0.0028              -4.755621514358314e-20        6.320025870805135e-13              3.486223306176983e-08           26618                         36                          28                    1698436.250290656    0.6848742150825444   48.37313005676248         4.915412693242339                 4.91654243171315                    6.280457524845908         
                0.009161297093318171      -1.165947128943497e-19     -5.567562766372806e-32          5.491892662184527e-19                31599                           6.175726106788132e-21      5.921801092772742e-19     8.810307899548342e-23      29.000000145         29                   0                    0.0029              -4.925467224460515e-20        6.207265513795686e-13              3.488228516206913e-08           26655                         36                          29                    1698436.969092815    0.6423295376586227   48.59085781348804         4.914282656520778                 4.915412693242339                   6.280457524845908         
                0.009394678759206878      -1.131040317825994e-19     -5.529727786779758e-32          5.474908288686046e-19                31636                           6.172886902867667e-21      5.92183010121102e-19     8.806263134944612e-23      30.00000015          30                   0                    0.003               -5.095313078671449e-20        6.365837061288053e-13              3.490248384829133e-08           26692                         36                          30                    1698437.687993739    0.8472564399950206   48.96743306344719         4.913152197358878                 4.914282656520778                   6.280457524845908         
                0.009498428188103059      -1.080375862492986e-19     -5.471520125866629e-32          5.457923908003356e-19                31673                           6.170047993170186e-21      5.92185911383797e-19     8.80221881782157e-23      31.000000155         31                   0                    0.003100000000000001 -5.265159076480978e-20        6.637015604992934e-13              3.492290131273911e-08           26729                         36                          31                    1698438.406813883    1.21859276204844     49.54174065776688         4.912021595878723                 4.913152197358878                   6.280457524845908         
                0.009561267627681806      -1.036951639725696e-19     -5.363835953177375e-32          5.440939520141257e-19                31710                           6.16721025561612e-21      5.921888121681013e-19     8.798176201914626e-23      32.00000016          32                   0                    0.0032              -5.435005217161092e-20        6.826338598207995e-13              3.494350929880221e-08           26766                         36                          32                    1698439.125330412    1.674490775841788    50.32428711762554         4.910891201723341                 4.912021595878723                   6.280457524845908         
                0.009623185657568705      -1.005550668957737e-19     -5.256151780485069e-32          5.42395512510456e-19                31747                           6.164374653275283e-21      5.921917114887782e-19     8.794136658223573e-23      33.000000165         33                   0                    0.0033              -5.604851499817968e-20        6.943965770150592e-13              3.496426080403849e-08           26803                         36                          33                    1698439.843299654    2.1404755570038      51.30033376468113         4.909761398788496                 4.910891201723341                   6.280457524845908         
                0.009691582451840652      -9.850863070809601e-20     -5.177571438261055e-32          5.406970722898116e-19                31784                           6.16154170036657e-21      5.921946088187134e-19     8.790100914869091e-23      34.00000017          34                   0                    0.003400000000000001 -5.774697923841699e-20        7.005576161669751e-13              3.498511112272561e-08           26840                         36                          34                    1698440.560592202    2.556785749361929    52.43591402543293         4.908632392426056                 4.909761398788496                   6.280457524845908         
                0.00975766171016669      -9.729437678271625e-20     -5.090259946882134e-32          5.38998631352683e-19                31821                           6.158711564995413e-21      5.921975039843769e-19     8.786069204462263e-23      35.000000175         35                   0                    0.0035              -5.944544488873402e-20        7.023347123064278e-13              3.500602175090312e-08           26877                         36                          35                    1698441.277166724    2.882501002345832    53.68534227719402         4.907504250195391                 4.908632392426056                   6.280457524845908         
                0.009806411414310733      -9.662245822282689e-20     -5.072797648607633e-32          5.373001896995629e-19                31858                           6.155884225212559e-21      5.922003970065582e-19     8.782041487612088e-23      36.00000018          36                   0                    0.0036              -6.114391194708403e-20        7.00570474364236e-13              3.502696020782871e-08           26914                         36                          36                    1698441.99303023     3.096401963814579    54.99881772561486         4.906376963935215                 4.907504250195391                   6.280457524845908         
                0.009830696818678451      -9.639528300605377e-20     -5.055335350330176e-32          5.356017473309483e-19                31895                           6.153059615256544e-21      5.922032879509163e-19     8.778017662416132e-23      37.000000185         37                   0                    0.0037              -6.28423804118486e-20        6.959849224976027e-13              3.504789881111083e-08           26951                         36                          37                    1698442.708200843    3.195157721960252    56.32902249854479         4.905250508004358                 4.906376963935215                   6.280457524845908         
                0.009835578179880584      -9.673069775264269e-20     -5.03787305205966e-32          5.339033042473379e-19                31932                           6.150237822173462e-21      5.922061767267238e-19     8.773997845462566e-23      38.00000019          38                   0                    0.0038              -6.454085028001389e-20        6.893518970686852e-13              3.50688067955915e-08           26988                         36                          38                    1698443.422657852    3.189744291247787    57.63566113535096         4.904124917701163                 4.905250508004358                   6.280457524845908         
                0.009815139322911493      -9.743956182745438e-20     -5.069887265563477e-32          5.322048604492296e-19                31969                           6.147418478952503e-21      5.922090637081781e-19     8.769981508134626e-23      39.000000195         39                   0                    0.0039              -6.623932155298242e-20        6.866210910332931e-13              3.508966578422832e-08           27025                         36                          39                    1698444.136495217    3.100821049131699    58.88947974940721         4.903000047176269                 4.904124917701163                   6.280457524845908         