# ODT 1.0
## Description: Data from vector field file bar_mag.omf
## Active volume: (0,0,0) x (5.04e-07,1e-09,1e-09)
## Cell size: 1e-09 x 1e-09 x 1e-09
## Cells in active volume: 504
#
# Table Start
# Title: Points in specified volume
# Columns: \
# x               m_x             m_y             m_z            
# Units: \
# m               {}              {}              {}             
  5e-10           0               0               1400000        
  1.5e-09         0               0               1400000        
  2.5e-09         0.00281034452313869 0.000437302969549697 1400000        
  3.5e-09         0.00586318041985762 0.000940943824528093 1400000        
  4.5e-09         0.00843767713283618 0.00129197005996304 1400000        
  5.5e-09         0.011739151440589 0.00184266042833701 1400000        
  6.5e-09         0.014085087081814 0.00208716127779354 1400000        
  7.5e-09         0.0176409939928233 0.00266659902529621 1400000        
  8.5e-09         0.0197664413468829 0.00278435702166146 1400000        
  9.5e-09         0.0235823562465454 0.00337555251547778 1400000        
  1.05e-08        0.0254963066067867 0.00334671811670876 1400000        
  1.15e-08        0.0295777040537832 0.00393430646861783 1400000        
  1.25e-08        0.031290182944491 0.00373972607224195 1400000        
  1.35e-08        0.0356425326143613 0.00431026094929339 1400000        
  1.45e-08        0.0371646929148609 0.00393179183380685 1400000        
  1.55e-08        0.0417935281350001 0.00447401658487207 1400000        
  1.65e-08        0.0431377153838742 0.00389482460757328 1400000        
  1.75e-08        0.048048669646891 0.00439991666294339 1400000        
  1.85e-08        0.0492284550845229 0.00360475276503547 1400000        
  1.95e-08        0.0544272628189556 0.00406653752277158 1400000        
  2.05e-08        0.0554574406293511 0.00304198935667757 1400000        
  2.15e-08        0.0609498995086522 0.00345712007239865 1400000        
  2.25e-08        0.0618464457223321 0.0021918353712433 1400000        
  2.35e-08        0.0676383388787786 0.00255993591578312 1400000        
  2.45e-08        0.0684183304703594 0.0010448145687232 1400000        
  2.55e-08        0.0745153081219654 0.00136858230847248 1400000        
  2.65e-08        0.0751968019500366 -0.000403065514451316 1400000        
  2.75e-08        0.0816042231161928 -0.00011779902928547 1400000        
  2.85e-08        0.0822060954795109 -0.00215013094560647 1400000        
  2.95e-08        0.0889288316249484 -0.00189438333224303 1400000        
  3.05e-08        0.0894705803180176 -0.00418894080773835 1400000        
  3.15e-08        0.0965127838951106 -0.0039506075883108 1400000        
  3.25e-08        0.0970142957088547 -0.00650627131782495 1400000        
  3.35e-08        0.104379137636614 -0.00627020085997043 1400000        
  3.45e-08        0.104860425238587 -0.00908318630208885 1400000        
  3.55e-08        0.112549806336169 -0.00883130122499505 1400000        
  3.65e-08        0.113030719354419 -0.0118951946108235 1400000        
  3.75e-08        0.121044961613294 -0.0116066593450532 1399999.99999999
  3.85e-08        0.121544877516326 -0.014912493953156 1399999.99999999
  3.95e-08        0.129882401827232 -0.0145639275544799 1399999.99999999
  4.05e-08        0.130419902820879 -0.0181002995058091 1399999.99999999
  4.15e-08        0.139076900351742 -0.0176660322269678 1399999.99999999
  4.25e-08        0.139669442987313 -0.021419254510398 1399999.99999999
  4.35e-08        0.148639547822895 -0.0208716260362663 1399999.99999999
  4.45e-08        0.149303132319438 -0.0248259189323608 1399999.99999999
  4.55e-08        0.158577103213202 -0.0241356155896128 1399999.99999999
  4.65e-08        0.159325949634054 -0.028273331122825 1399999.99999999
  4.75e-08        0.168891368782762 -0.0274097587910677 1399999.99999999
  4.85e-08        0.169737607171585 -0.0317116363140341 1399999.99999999
  4.95e-08        0.179578603802993 -0.0306433251974469 1399999.99999999
  5.05e-08        0.180531985180178 -0.0350887747004622 1399999.99999999
  5.15e-08        0.190628991447741 -0.0337838115727324 1399999.99999999
  5.25e-08        0.191696626202082 -0.0383512208215876 1399999.99999999
  5.35e-08        0.202026172415911 -0.0367777038371048 1399999.99999998
  5.45e-08        0.203212302110069 -0.0414447649771629 1399999.99999998
  5.55e-08        0.213746857712333 -0.03957127565166 1399999.99999998
  5.65e-08        0.215052665668981 -0.0443153264781952 1399999.99999998
  5.75e-08        0.22576053159984 -0.0421114129844429 1399999.99999998
  5.85e-08        0.227183996866459 -0.046909787670189 1399999.99999998
  5.95e-08        0.238029254081761 -0.0443464531690668 1399999.99999998
  6.05e-08        0.239565052506426 -0.0491768368588146 1399999.99999998
  6.15e-08        0.250507570421443 -0.0462270261906137 1399999.99999998
  6.25e-08        0.252147025631924 -0.0510678075159592 1399999.99999998
  6.35e-08        0.26314253319895 -0.0477068852052659 1399999.99999997
  6.45e-08        0.264873619286565 -0.0525375004330038 1399999.99999997
  6.55e-08        0.275873840292022 -0.048743712602874 1399999.99999997
  6.65e-08        0.277681236983938 -0.0535449747960591 1399999.99999997
  6.75e-08        0.288634089997135 -0.049299887227937 1399999.99999997
  6.85e-08        0.290499290080073 -0.0540542934513224 1399999.99999997
  6.95e-08        0.301349152325508 -0.0493431976440077 1399999.99999997
  7.05e-08        0.30325062008308 -0.0540352068596825 1399999.99999997
  7.15e-08        0.313938653364969 -0.0488474855027743 1399999.99999996
  7.25e-08        0.315852031831987 -0.0534637593419114 1399999.99999996
  7.35e-08        0.326316567536506 -0.0477932020848572 1399999.99999996
  7.45e-08        0.32821493147623 -0.0523228000996328 1399999.99999996
  7.55e-08        0.338391910635056 -0.0461678598113806 1399999.99999996
  7.65e-08        0.340246061327205 -0.0506023800436629 1399999.99999996
  7.75e-08        0.350069524764613 -0.043966358847026 1399999.99999996
  7.85e-08        0.351848321967902 -0.0483000135135473 1399999.99999995
  7.95e-08        0.361250944689998 -0.0411911666475232 1399999.99999995
  8.05e-08        0.362921670525065 -0.04542078132548 1399999.99999995
  8.15e-08        0.371835333758054 -0.0378523252140856 1399999.99999995
  8.25e-08        0.373364082753971 -0.0419772479741136 1399999.99999995
  8.35e-08        0.381720476410237 -0.0339672566012443 1399999.99999995
  8.45e-08        0.383072565576374 -0.0379891608919914 1399999.99999995
  8.55e-08        0.390803813431284 -0.0295603314904599 1399999.99999995
  8.65e-08        0.391944205958999 -0.0334828929917337 1399999.99999994
  8.75e-08        0.398983505463338 -0.0246621578819541 1399999.99999994
  8.85e-08        0.399877241528974 -0.0284905807029022 1399999.99999994
  8.95e-08        0.406159509964436 -0.0193085365144607 1399999.99999994
  9.05e-08        0.406772138093671 -0.0230488976202254 1399999.99999994
  9.15e-08        0.412234656701768 -0.0135390156471115 1399999.99999994
  9.25e-08        0.412532659260459 -0.0171973877355628 1399999.99999994
  9.35e-08        0.417115707035473 -0.00739495922934533 1399999.99999994
  9.45e-08        0.417066913626467 -0.0109762607807223 1399999.99999994
  9.55e-08        0.420714382655336 -0.000917017818870119 1399999.99999994
  9.65e-08        0.420288365515307 -0.00442352384029091 1399999.99999994
  9.75e-08        0.422948350063706 0.00585814096197345 1399999.99999994
  9.85e-08        0.422116795958354 0.00242871399925081 1399999.99999994
  9.95e-08        0.423742147932996 0.0129020285088031 1399999.99999994
  1.005e-07       0.422479201531385 0.00955897634253212 1399999.99999994
  1.015e-07       0.423028045482152 0.0201997002064201 1399999.99999994
  1.025e-07       0.42131061973934 0.0169624703345349 1399999.99999994
  1.035e-07       0.420746821188399 0.0277566053484802 1399999.99999994
  1.045e-07       0.418554870867035 0.0246588148028919 1399999.99999994
  1.055e-07       0.416848452451636 0.0356073344519757 1399999.99999994
  1.065e-07       0.414165207555281 0.0327019170105651 1399999.99999994
  1.075e-07       0.411292708231745 0.0438268022828327 1399999.99999994
  1.085e-07       0.408104864792808 0.0411926131343086 1399999.99999994
  1.095e-07       0.404049638156275 0.0525445691099854 1399999.99999994
  1.105e-07       0.400347504507526 0.0502948750875617 1399999.99999994
  1.115e-07       0.395099953120153 0.061963216740657 1399999.99999994
  1.125e-07       0.390877550469518 0.0602566306315153 1399999.99999994
  1.135e-07       0.38443529394409 0.0723819747178674 1399999.99999995
  1.145e-07       0.379690410757204 0.0714365619233477 1399999.99999995
  1.155e-07       0.372058386199142 0.0842271551372829 1399999.99999995
  1.165e-07       0.366792586563307 0.084338661923221 1399999.99999995
  1.175e-07       0.357983080818173 0.0980914271698387 1399999.99999995
  1.185e-07       0.352201667606182 0.0996568672824158 1399999.99999995
  1.195e-07       0.342234281579375 0.114784577477017 1399999.99999995
  1.205e-07       0.335946215844476 0.118332788008269 1399999.99999995
  1.215e-07       0.324847761943395 0.135399203100122 1399999.99999996
  1.225e-07       0.318065540550643 0.141630467189887 1399999.99999996
  1.235e-07       0.305869875037092 0.161395824803517 1399999.99999996
  1.245e-07       0.298609369065755 0.17123329191455 1399999.99999996
  1.255e-07       0.285357161789151 0.194713263732269 1399999.99999996
  1.265e-07       0.277637418720722 0.209369721876625 1399999.99999996
  1.275e-07       0.263375863323677 0.237911886899947 1399999.99999995
  1.285e-07       0.255218876456299 0.258976512630512 1399999.99999995
  1.295e-07       0.240001344697935 0.294359620128278 1399999.99999995
  1.305e-07       0.231431793597377 0.323910725892653 1399999.99999994
  1.315e-07       0.21531743792251 0.368473610219163 1399999.99999993
  1.325e-07       0.206362404029479 0.409225221800304 1399999.99999993
  1.335e-07       0.189415712921377 0.466034298995393 1399999.99999991
  1.345e-07       0.180104374682938 0.521526754429476 1399999.99999989
  1.355e-07       0.162394685673057 0.594593720546198 1399999.99999986
  1.365e-07       0.152757997750761 0.669441550295684 1399999.99999983
  1.375e-07       0.134358973221551 0.764006401020134 1399999.99999979
  1.385e-07       0.124429334449552 0.864220740893355 1399999.99999973
  1.395e-07       0.10541840555826 0.987119784874982 1399999.99999965
  1.405e-07       0.0952293203809002 1.12052776612425 1399999.99999955
  1.415e-07       0.0756871045566429 1.28067222750983 1399999.99999941
  1.425e-07       0.0652728426666909 1.45746254425951 1399999.99999924
  1.435e-07       0.0452825401943566 1.66646105561568 1399999.99999901
  1.445e-07       0.0346777990209761 1.89989369864822 1399999.99999871
  1.455e-07       0.0143245742289692 2.17286201028884 1399999.99999831
  1.465e-07       0.00356414878974632 2.48019159021209 1399999.9999978
  1.475e-07       -0.0170654986899347 2.83680586392791 1399999.99999713
  1.485e-07       -0.0279470342542309 3.24048282201743 1399999.99999625
  1.495e-07       -0.0487659027792392 3.70634984444031 1399999.99999509
  1.505e-07       -0.0597344979226001 4.23558320179154 1399999.99999359
  1.515e-07       -0.0806553164457915 4.84402292654564 1399999.99999162
  1.525e-07       -0.0916777274325767 5.53681339913836 1399999.99998905
  1.535e-07       -0.112613782344831 6.33117794456485 1399999.99998568
  1.545e-07       -0.123657832569075 7.23696300659376 1399999.99998129
  1.555e-07       -0.144523583896736 8.27365359683905 1399999.99997554
  1.565e-07       -0.1555583983193 9.45674868803265 1399999.99996805
  1.575e-07       -0.176270080606431 10.8091406311885 1399999.99995826
  1.585e-07       -0.187266291773959 12.3532161431591 1399999.99994549
  1.595e-07       -0.207742495207769 14.1167651754862 1399999.99992881
  1.605e-07       -0.218672418802769 16.1306709778868 1399999.99990705
  1.615e-07       -0.238834646379242 18.4295565712   1399999.99987868
  1.625e-07       -0.249672424764668 21.0548996730154 1399999.99984165
  1.635e-07       -0.269445621537202 24.0506679316286 1399999.99979339
  1.645e-07       -0.280167334294347 27.4716709503732 1399999.99973044
  1.655e-07       -0.299480384997823 31.3744789674005 1399999.99964841
  1.665e-07       -0.310064126004366 35.8308059000716 1399999.99954145
  1.675e-07       -0.328850317599171 40.9140505963342 1399999.99940212
  1.685e-07       -0.339276238746954 46.7174930100075 1399999.99922049
  1.695e-07       -0.357473684680679 53.3368431566354 1399999.99898395
  1.705e-07       -0.367724006880066 60.8930287315991 1399999.99867568
  1.715e-07       -0.385276030119566 69.5111854706905 1399999.9982743
  1.725e-07       -0.395335022770839 79.3478205535637 1399999.99775135
  1.735e-07       -0.412190494913359 90.5667306304538 1399999.99707053
  1.745e-07       -0.422044425534534 103.370343441322 1399999.99618371
  1.755e-07       -0.438158059568105 117.973108323688 1399999.99502934
  1.765e-07       -0.447795115745025 134.636851392003 1399999.99352597
  1.775e-07       -0.463127710292742 153.642250611851 1399999.99156923
  1.785e-07       -0.472537896549627 175.328091108215 1399999.98902137
  1.795e-07       -0.48705652970749 200.061516535462 1399999.98570541
  1.805e-07       -0.496231542278011 228.281145043048 1399999.98138838
  1.815e-07       -0.509909713438342 260.466885545484 1399999.97577026
  1.825e-07       -0.518842796236819 297.186977235972 1399999.96845701
  1.835e-07       -0.531660514585299 339.068279867426 1399999.95894015
  1.845e-07       -0.540346299926114 386.847437764952 1399999.94655313
  1.855e-07       -0.552290118605919 441.342705761322 1399999.93043439
  1.865e-07       -0.560724456392434 503.509621852943 1399999.90945634
  1.875e-07       -0.571787451643314 574.415625955622 1399999.88215941
  1.885e-07       -0.579967230829302 655.300865910752 1399999.84663586
  1.895e-07       -0.590148925730085 747.557119027626 1399999.80041356
  1.905e-07       -0.598071891829883 852.794669972329 1399999.74026458
  1.915e-07       -0.607378124577865 972.827373727035 1399999.66200229
  1.925e-07       -0.61504269686614 1109.74695165501 1399999.56016469
  1.935e-07       -0.623485433809921 1265.91646318119 1399999.42766243
  1.945e-07       -0.630890525547457 1444.05389491384 1399999.25525264
  1.955e-07       -0.638487619382501 1647.23686837012 1399999.03093191
  1.965e-07       -0.645632463922109 1878.99808141826 1399998.73905864
  1.975e-07       -0.652407357523819 2143.34481135633 1399998.35931068
  1.985e-07       -0.659291342366173 2444.86965354561 1399997.86521692
  1.995e-07       -0.665272718535068 2788.78933566753 1399997.22237353
  2.005e-07       -0.67189522820961 3181.07534413778 1399996.38598077
  2.015e-07       -0.677116604935032 3628.51781426784 1399995.29779854
  2.025e-07       -0.683476871737156 4138.88211694043 1399993.88200604
  2.035e-07       -0.687976141147195 4721.00521787687 1399992.04001639
  2.045e-07       -0.694073099809716 5384.98621274645 1399989.64350563
  2.055e-07       -0.697892006142976 6142.32466794809 1399986.52559487
  2.065e-07       -0.703724143884269 7006.15556578569 1399982.4690987
  2.075e-07       -0.706907690682724 7991.44188886753 1399977.1915485
  2.085e-07       -0.712472876387303 9115.26762262477 1399970.32536253
  2.095e-07       -0.715068644115236 10397.1003968914 1399961.39243296
  2.105e-07       -0.720363907879487 11859.1602765067 1399949.77064072
  2.115e-07       -0.722421247434787 13526.7728266558 1399934.65076638
  2.125e-07       -0.727442460688352 15428.8366113117 1399914.97991853
  2.135e-07       -0.729011501483292 17598.292812925 1399889.38851951
  2.145e-07       -0.733752872860479 20072.7208488004 1399856.09470302
  2.155e-07       -0.734883238324849 22894.9578123377 1399812.78066255
  2.165e-07       -0.739336481329881 26113.8594998715 1399756.43107702
  2.175e-07       -0.740075527268715 29785.1114167665 1399683.12383101
  2.185e-07       -0.744228456461893 33972.2015397174 1399587.75699203
  2.195e-07       -0.744618716471557 38747.4738698031 1399463.6948732
  2.205e-07       -0.748452861478192 44193.3683334267 1399302.30693542
  2.215e-07       -0.748528163403198 50403.7759479217 1399092.36984898
  2.225e-07       -0.752014708699355 57485.6072273443 1398819.28960146
  2.235e-07       -0.75179405645796 65560.5099157764 1398464.09304602
  2.245e-07       -0.754886945062304 74766.8222561319 1398002.11812756
  2.255e-07       -0.754364646836744 85261.6978888487 1397401.31775827
  2.265e-07       -0.756988906560325 97223.4660954077 1396620.0620211
  2.275e-07       -0.756118423755874 110854.146447144 1395604.29857998
  2.285e-07       -0.758150506458677 126382.133892237 1394283.88652823
  2.295e-07       -0.756817884080487 144064.917982235 1392567.87964041
  2.305e-07       -0.758052803078409 164191.748653989 1390338.47306092
  2.315e-07       -0.756033059959935 187085.974474234 1387443.27385103
  2.325e-07       -0.75613012302319 213106.744117285 1383685.48290829
  2.335e-07       -0.753016475296651 242649.490987307 1378811.5261061
  2.345e-07       -0.751411480803247 276144.437268936 1372495.62832268
  2.355e-07       -0.746503226267778 314051.916024701 1364320.85450625
  2.365e-07       -0.742271405120041 356852.885300488 1353756.26249786
  2.375e-07       -0.734404449646486 405032.314962681 1340130.15182684
  2.385e-07       -0.726060307337856 459052.420051719 1322600.04371848
  2.395e-07       -0.713373663994773 519311.852122528 1300121.22521116
  2.405e-07       -0.698616051269011 586086.341851613 1271417.63394036
  2.415e-07       -0.678291358449342 659446.159421999 1234961.84670747
  2.425e-07       -0.653778308700375 739147.032451506 1188975.04785328
  2.435e-07       -0.621912203492427 824494.865897483 1131462.86554544
  2.445e-07       -0.583331075542483 914192.342225664 1060307.67299667
  2.455e-07       -0.535341759939068 1006188.39516925 973439.732816796
  2.465e-07       -0.478316972296614 1097569.41093707 869103.784467097
  2.475e-07       -0.410521363163695 1184549.6234111 746218.593762214
  2.485e-07       -0.3329423998932 1262627.46032892 604790.787316753
  2.495e-07       -0.245551209502583 1326959.03572069 446295.54951752
  2.505e-07       -0.150836415550212 1372946.33711563 273894.788925898
  2.515e-07       -0.0507633879507166 1396950.05683174 92360.9155314212
  2.525e-07       0.0507633881892095 1396950.05683174 -92360.9155314385
  2.535e-07       0.150836415761168 1372946.33711562 -273894.788925915
  2.545e-07       0.245551209942726 1326959.03572069 -446295.549517536
  2.555e-07       0.332942400151483 1262627.46032892 -604790.787316767
  2.565e-07       0.410521363756034 1184549.62341109 -746218.593762226
  2.575e-07       0.478316972505107 1097569.41093706 -869103.784467108
  2.585e-07       0.535341760300821 1006188.39516924 -973439.732816805
  2.595e-07       0.583331075471552 914192.342225656 -1060307.67299668
  2.605e-07       0.621912203754314 824494.865897475 -1131462.86554545
  2.615e-07       0.653778308843919 739147.032451499 -1188975.04785328
  2.625e-07       0.678291358636891 659446.159421991 -1234961.84670747
  2.635e-07       0.698616051354535 586086.341851607 -1271417.63394036
  2.645e-07       0.713373664441062 519311.852122522 -1300121.22521116
  2.655e-07       0.72606030747565 459052.420051714 -1322600.04371848
  2.665e-07       0.734404449854554 405032.314962677 -1340130.15182684
  2.675e-07       0.742271405201188 356852.885300483 -1353756.26249786
  2.685e-07       0.746503226391273 314051.916024697 -1364320.85450625
  2.695e-07       0.75141148084744 276144.437268933 -1372495.62832268
  2.705e-07       0.753016475395936 242649.490987304 -1378811.5261061
  2.715e-07       0.756130123011192 213106.744117283 -1383685.48290829
  2.725e-07       0.756033060123457 187085.974474232 -1387443.27385103
  2.735e-07       0.758052803056751 164191.748653987 -1390338.47306092
  2.745e-07       0.756817884187287 144064.917982234 -1392567.87964041
  2.755e-07       0.758150506460828 126382.133892236 -1394283.88652823
  2.765e-07       0.756118423788981 110854.146447143 -1395604.29857998
  2.775e-07       0.756988906574854 97223.4660954065 -1396620.0620211
  2.785e-07       0.754364646845317 85261.6978888476 -1397401.31775827
  2.795e-07       0.754886945114776 74766.822256131 -1398002.11812756
  2.805e-07       0.75179405648452 65560.5099157756 -1398464.09304602
  2.815e-07       0.752014708723529 57485.6072273436 -1398819.28960146
  2.825e-07       0.748528163432362 50403.7759479211 -1399092.36984898
  2.835e-07       0.748452861462652 44193.3683334262 -1399302.30693542
  2.845e-07       0.744618716501868 38747.4738698026 -1399463.6948732
  2.855e-07       0.744228456447045 33972.201539717 -1399587.75699203
  2.865e-07       0.740075527285948 29785.1114167661 -1399683.12383101
  2.875e-07       0.739336481327847 26113.8594998712 -1399756.43107702
  2.885e-07       0.734883238337198 22894.9578123374 -1399812.78066255
  2.895e-07       0.733752872863891 20072.7208488002 -1399856.09470302
  2.905e-07       0.729011501490399 17598.2928129247 -1399889.38851951
  2.915e-07       0.727442460695941 15428.8366113116 -1399914.97991853
  2.925e-07       0.72242124743547 13526.7728266556 -1399934.65076638
  2.935e-07       0.720363907882702 11859.1602765066 -1399949.77064072
  2.945e-07       0.71506864411137 10397.1003968912 -1399961.39243296
  2.955e-07       0.71247287639353 9115.26762262468 -1399970.32536253
  2.965e-07       0.7069076906736 7991.44188886741 -1399977.1915485
  2.975e-07       0.703724143892164 7006.15556578562 -1399982.4690987
  2.985e-07       0.697892006127804 6142.32466794801 -1399986.52559487
  2.995e-07       0.694073099820414 5384.98621274639 -1399989.64350563
  3.005e-07       0.687976141128009 4721.00521787681 -1399992.04001639
  3.015e-07       0.683476871747764 4138.88211694039 -1399993.88200604
  3.025e-07       0.677116604914066 3628.5178142678 -1399995.29779854
  3.035e-07       0.671895228222053 3181.07534413773 -1399996.38598077
  3.045e-07       0.665272718516838 2788.7893356675 -1399997.22237353
  3.055e-07       0.659291342380115 2444.86965354557 -1399997.86521692
  3.065e-07       0.652407357510571 2143.34481135631 -1399998.35931068
  3.075e-07       0.645632463935265 1878.99808141822 -1399998.73905864
  3.085e-07       0.638487619372652 1647.23686837011 -1399999.03093191
  3.095e-07       0.63089052555761 1444.0538949138 -1399999.25525264
  3.105e-07       0.623485433802584 1265.9164631812 -1399999.42766243
  3.115e-07       0.615042696872222 1109.74695165497 -1399999.56016469
  3.125e-07       0.607378124573146 972.827373727043 -1399999.66200229
  3.135e-07       0.598071891832407 852.794669972297 -1399999.74026458
  3.145e-07       0.590148925727845 747.557119027637 -1399999.80041356
  3.155e-07       0.579967230828656 655.300865910722 -1399999.84663586
  3.165e-07       0.571787451643778 574.415625955635 -1399999.88215941
  3.175e-07       0.560724456389597 503.509621852915 -1399999.90945634
  3.185e-07       0.552290118608309 441.342705761337 -1399999.93043439
  3.195e-07       0.54034629992173 386.847437764926 -1399999.94655313
  3.205e-07       0.531660514589473 339.06827986744 -1399999.95894015
  3.215e-07       0.518842796231397 297.186977235948 -1399999.96845701
  3.225e-07       0.509909713443819 260.466885545498 -1399999.97577026
  3.235e-07       0.496231542271873 228.281145043026 -1399999.98138838
  3.245e-07       0.487056529713733 200.061516535476 -1399999.98570541
  3.255e-07       0.472537896543176 175.328091108195 -1399999.98902137
  3.265e-07       0.463127710299459 153.642250611865 -1399999.99156923
  3.275e-07       0.447795115738876 134.636851391984 -1399999.99352597
  3.285e-07       0.438158059574773 117.973108323701 -1399999.99502934
  3.295e-07       0.422044425529084 103.370343441306 -1399999.99618371
  3.305e-07       0.412190494919437 90.5667306304658 -1399999.99707053
  3.315e-07       0.39533502276633 79.3478205535487 -1399999.99775135
  3.325e-07       0.385276030124668 69.5111854707022 -1399999.9982743
  3.335e-07       0.367724006876754 60.8930287315852 -1399999.99867568
  3.345e-07       0.357473684684558 53.3368431566469 -1399999.99898395
  3.355e-07       0.339276238744826 46.7174930099942 -1399999.99922049
  3.365e-07       0.328850317601742 40.9140505963459 -1399999.99940212
  3.375e-07       0.310064126003404 35.8308059000585 -1399999.99954145
  3.385e-07       0.299480384999198 31.3744789674127 -1399999.99964841
  3.395e-07       0.280167334294372 27.47167095036  -1399999.99973044
  3.405e-07       0.269445621537555 24.0506679316414 -1399999.99979339
  3.415e-07       0.249672424765443 21.0548996730018 -1399999.99984165
  3.425e-07       0.238834646378811 18.4295565712136 -1399999.99987868
  3.435e-07       0.218672418804052 16.1306709778727 -1399999.99990705
  3.445e-07       0.207742495206791 14.1167651755004 -1399999.99992881
  3.455e-07       0.187266291775546 12.3532161431444 -1399999.99994549
  3.465e-07       0.176270080605117 10.8091406312033 -1399999.99995826
  3.475e-07       0.155558398321021 9.45674868801746 -1399999.99996805
  3.485e-07       0.144523583895247 8.27365359685446 -1399999.99997554
  3.495e-07       0.123657832570831 7.23696300657811 -1399999.99998129
  3.505e-07       0.112613782343279 6.3311779445807 -1399999.99998568
  3.515e-07       0.0916777274343197 5.53681339912234 -1399999.99998905
  3.525e-07       0.0806553164442277 4.84402292656185 -1399999.99999162
  3.535e-07       0.0597344979243198 4.23558320177518 -1399999.99999359
  3.545e-07       0.0487659027776845 3.70634984445685 -1399999.99999509
  3.555e-07       0.0279470342559314 3.24048282200076 -1399999.99999625
  3.565e-07       0.0170654986883951 2.83680586394478 -1399999.99999713
  3.575e-07       -0.00356414878806657 2.48019159019511 -1399999.9999978
  3.585e-07       -0.0143245742304905 2.17286201030608 -1399999.99999831
  3.595e-07       -0.034677799019331 1.89989369863089 -1399999.99999871
  3.605e-07       -0.0452825401958466 1.66646105563333 -1399999.99999901
  3.615e-07       -0.065272842665114 1.45746254424178 -1399999.99999924
  3.625e-07       -0.0756871045580772 1.28067222752795 -1399999.99999941
  3.635e-07       -0.0952293203794377 1.12052776610608 -1399999.99999955
  3.645e-07       -0.105418405559605 0.987119784893618 -1399999.99999965
  3.655e-07       -0.124429334448255 0.864220740874662 -1399999.99999973
  3.665e-07       -0.134358973222763 0.764006401039323 -1399999.99999979
  3.675e-07       -0.152757997749681 0.669441550276421 -1399999.99999983
  3.685e-07       -0.162394685674091 0.594593720565974 -1399999.99999986
  3.695e-07       -0.180104374682117 0.521526754409592 -1399999.99999989
  3.705e-07       -0.189415712922187 0.466034299015786 -1399999.99999991
  3.715e-07       -0.20636240402895 0.409225221779752 -1399999.99999993
  3.725e-07       -0.215317437923055 0.368473610240203 -1399999.99999993
  3.735e-07       -0.231431793597163 0.323910725871391 -1399999.99999994
  3.745e-07       -0.240001344698181 0.294359620149998 -1399999.99999995
  3.755e-07       -0.255218876456415 0.258976512608499 -1399999.99999995
  3.765e-07       -0.263375863323597 0.237911886922382 -1399999.99999995
  3.775e-07       -0.277637418721175 0.209369721853821 -1399999.99999996
  3.785e-07       -0.285357161788724 0.194713263755461 -1399999.99999996
  3.795e-07       -0.298609369066547 0.171233291890917 -1399999.99999996
  3.805e-07       -0.305869875036305 0.16139582482751 -1399999.99999996
  3.815e-07       -0.318065540551771 0.141630467165388 -1399999.99999996
  3.825e-07       -0.32484776194224 0.135399203124962 -1399999.99999996
  3.835e-07       -0.335946215845935 0.118332787982869 -1399999.99999995
  3.845e-07       -0.342234281577852 0.114784577502753 -1399999.99999995
  3.855e-07       -0.352201667607964 0.0996568672560807 -1399999.99999995
  3.865e-07       -0.357983080816288 0.0980914271965157 -1399999.99999995
  3.875e-07       -0.366792586565402 0.0843386618959201 -1399999.99999995
  3.885e-07       -0.37205838619691 0.0842271551649442 -1399999.99999995
  3.895e-07       -0.3796904107596 0.0714365618950518 -1399999.99999995
  3.905e-07       -0.384435293941532 0.0723819747465522 -1399999.99999995
  3.915e-07       -0.390877550472197 0.0602566306021964 -1399999.99999994
  3.925e-07       -0.395099953117295 0.0619632167703995 -1399999.99999994
  3.935e-07       -0.400347504510468 0.0502948750571936 -1399999.99999994
  3.945e-07       -0.404049638153149 0.0525445691408147 -1399999.99999994
  3.955e-07       -0.408104864795988 0.041192613102867 -1399999.99999994
  3.965e-07       -0.411292708228388 0.0438268023147722 -1399999.99999994
  3.975e-07       -0.41416520755867 0.0327019169780285 -1399999.99999994
  3.985e-07       -0.416848452448088 0.0356073344850431 -1399999.99999994
  3.995e-07       -0.418554870870599 0.024658814769242 -1399999.99999994
  4.005e-07       -0.4207468211847 0.0277566053826875 -1399999.99999994
  4.015e-07       -0.421310619743042 0.0169624702997578 -1399999.99999994
  4.025e-07       -0.423028045478345 0.0201997002417741 -1399999.99999994
  4.035e-07       -0.422479201535183 0.00955897630661914 -1399999.99999994
  4.045e-07       -0.423742147929125 0.0129020285453044 -1399999.99999994
  4.055e-07       -0.422116795962206 0.00242871396219941 -1399999.99999994
  4.065e-07       -0.422948350059816 0.00585814099961653 -1399999.99999994
  4.075e-07       -0.420288365519168 -0.00442352387847648 -1399999.99999994
  4.085e-07       -0.42071438265147 -0.000917017780096633 -1399999.99999994
  4.095e-07       -0.41706691363029 -0.0109762608200306 -1399999.99999994
  4.105e-07       -0.417115707031678 -0.00739495918945947 -1399999.99999994
  4.115e-07       -0.412532659264197 -0.0171973877759745 -1399999.99999994